Header Line

12966 atoms
1 atom types
  0.0000000000  70.0000000000 xlo xhi
  0.0000000000  70.0000000000 ylo yhi
  0.0000000000  70.0000000000 zlo zhi

Atoms # atomic

      1      1    2.82098156    2.68256211    0.27305682
      2      1    1.92404863    2.87549651    2.75917581
      3      1    1.02711571    3.06843091    5.24529480
      4      1    0.13018278    3.26136530    7.73141379
      5      1    3.45271760    2.14834781    1.95477164
      6      1    2.55578468    2.34128221    4.44089063
      7      1    1.65885175    2.53421661    6.92700963
      8      1    0.76191883    2.72715101    9.41312862
      9      1    3.32271898    7.03560791   67.29157143
     10      1    2.42578606    7.22854230   69.77769042
     11      1    9.99644496    1.13908692   50.38410489
     12      1    9.09951203    1.33202132   52.87022388
     13      1    8.20257911    1.52495572   55.35634287
     14      1    7.30564618    1.71789012   57.84246186
     15      1    6.40871326    1.91082452   60.32858085
     16      1    5.51178033    2.10375891   62.81469984
     17      1    4.61484741    2.29669331   65.30081883
     18      1    3.71791448    2.48962771   67.78693782
     19      1   10.62818100    0.60487262   52.06581972
     20      1    9.73124808    0.79780702   54.55193871
     21      1    8.83431515    0.99074142   57.03805770
     22      1    7.93738223    1.18367582   59.52417669
     23      1    7.04044930    1.37661022   62.01029568
     24      1    6.14351638    1.56954462   64.49641467
     25      1    5.24658345    1.76247901   66.98253366
     26      1    4.34965053    1.95541341   69.46865265
     27      1    1.56097598   10.49485628   57.91347111
     28      1    0.66404305   10.68779068   60.39959011
     29      1    6.44083610    4.98420410   45.97824256
     30      1    5.54390318    5.17713849   48.46436155
     31      1    4.64697025    5.37007289   50.95048054
     32      1    3.75003733    5.56300729   53.43659953
     33      1    2.85310440    5.75594169   55.92271852
     34      1    1.95617148    5.94887609   58.40883751
     35      1    1.05923855    6.14181049   60.89495650
     36      1    1.29577910   10.15357638   62.08130493
     37      1    0.16230563    6.33474489   63.38107549
     38      1    7.73296453    0.24528950   43.98748996
     39      1    7.96950508    4.25705540   45.17383839
     40      1    6.83603160    0.43822390   46.47360896
     41      1    7.07257215    4.44998980   47.65995739
     42      1    5.93909868    0.63115830   48.95972795
     43      1    6.17563923    4.64292420   50.14607638
     44      1    5.04216575    0.82409270   51.44584694
     45      1    5.27870630    4.83585859   52.63219537
     46      1    4.14523283    1.01702710   53.93196593
     47      1    4.38177338    5.02879299   55.11831436
     48      1    3.24829990    1.20996149   56.41808492
     49      1    3.48484045    5.22172739   57.60443335
     50      1    2.35136698    1.40289589   58.90420391
     51      1    2.58790753    5.41466179   60.09055234
     52      1    1.45443405    1.59583029   61.39032290
     53      1    1.69097460    5.60759619   62.57667133
     54      1    0.55750113    1.78876469   63.87644189
     55      1    0.79404167    5.80053059   65.06279032
     56      1    6.57083472    0.09694400   50.64144277
     57      1    5.67390180    0.28987840   53.12756177
     58      1    4.77696887    0.48281280   55.61368076
     59      1    3.88003595    0.67574720   58.09979975
     60      1    2.98310302    0.86868159   60.58591874
     61      1    2.08617010    1.06161599   63.07203773
     62      1    1.18923717    1.25455039   65.55815672
     63      1    0.29230425    1.44748479   68.04427571
     64      1    3.28042275    4.28334107   42.06774663
     65      1    2.38348982    4.47627547   44.55386562
     66      1    1.48655690    4.66920987   47.03998461
     67      1    0.58962397    4.86214427   49.52610360
     68      1    4.80909172    3.55619238   41.26334246
     69      1    3.91215879    3.74912678   43.74946145
     70      1    3.01522587    3.94206118   46.23558044
     71      1    1.88175239    0.12322968   47.53535100
     72      1    2.11829294    4.13499557   48.72169944
     73      1    0.98481947    0.31616407   50.02147000
     74      1    1.22136002    4.32792997   51.20781843
     75      1    0.08788654    0.50909847   52.50758899
     76      1    0.32442709    4.52086437   53.69393742
     77      1    7.27352334   68.64451054    2.19280015
     78      1    6.37659041   68.83744493    4.67891915
     79      1    8.56565176   63.90559594    0.20204756
     80      1    8.80219231   67.91736184    1.38839599
     81      1    7.66871883   64.09853034    2.68816655
     82      1    7.90525938   68.11029624    3.87451498
     83      1    8.96084726   59.35961575    0.69741396
     84      1    9.19738781   63.37138164    1.88376239
     85      1    3.21617705   68.13658191    0.76842321
     86      1    2.31924413   68.32951631    3.25454220
     87      1    1.42231120   68.52245071    5.74066120
     88      1    0.52537828   68.71538511    8.22678019
     89      1    3.61137255   63.59060172    1.26378961
     90      1    3.84791310   67.60236762    2.45013804
     91      1    2.71443963   63.78353612    3.74990860
     92      1    2.95098018   67.79530201    4.93625703
     93      1    1.81750670   63.97647052    6.23602759
     94      1    2.05404725   67.98823641    7.42237602
     95      1    5.14004153   62.86345302    0.45938545
     96      1    4.00656805   59.04462152    1.75915601
     97      1    4.24310860   63.05638742    2.94550444
     98      1    3.10963513   59.23755592    4.24527500
     99      1    3.34617567   63.24932182    5.43162343
    100      1    5.53523702   58.31747283    0.95475185
    101      1    4.63830410   58.51040723    3.44087084
    102      1    0.18576232   62.54845880    1.52112750
    103      1    0.34441727   53.99071270    0.83014546
    104      1    0.58095782   58.00247860    2.01649389
    105      1    1.87308624   53.26356401    0.02574130
    106      1    0.73961277   49.44473251    1.32551186
    107      1    0.97615332   53.45649841    2.51186029
    108      1    2.26828174   48.71758381    0.52110770
    109      1   15.31379681   63.83472137   64.16806753
    110      1   14.41686389   64.02765577   66.65418652
    111      1   13.51993096   64.22059017   69.14030551
    112      1   15.70899231   59.28874117   64.66343393
    113      1   14.81205939   59.48167557   67.14955292
    114      1   15.04859994   63.49344147   68.33590135
    115      1   13.55205381   67.29396975   54.78996722
    116      1   12.65512089   67.48690415   57.27608621
    117      1   11.75818796   67.67983854   59.76220520
    118      1   10.86125504   67.87277294   62.24832419
    119      1    9.96432211   68.06570734   64.73444318
    120      1    9.06738919   68.25864174   67.22056217
    121      1    8.17045626   68.45157614   69.70668116
    122      1   14.18378986   66.75975545   56.47168205
    123      1   13.05031638   62.94092395   57.77145261
    124      1   13.28685693   66.95268985   58.95780104
    125      1   12.15338346   63.13385835   60.25757160
    126      1   12.38992401   67.14562425   61.44392003
    127      1   11.25645053   63.32679275   62.74369059
    128      1   11.49299108   67.33855864   63.93003902
    129      1   10.35951761   63.51972715   65.22980958
    130      1   10.59605816   67.53149304   66.41615801
    131      1    9.46258468   63.71266154   67.71592857
    132      1    9.69912523   67.72442744   68.90227700
    133      1   13.68205243   62.40670965   59.45316743
    134      1   12.54857896   58.58787815   60.75293800
    135      1   12.78511951   62.59964405   61.93928643
    136      1   11.65164603   58.78081255   63.23905699
    137      1   11.88818658   62.79257845   64.42540542
    138      1   10.75471311   58.97374695   65.72517598
    139      1   10.99125366   62.98551285   66.91152441
    140      1    9.85778018   59.16668135   68.21129497
    141      1   10.09432073   63.17844725   69.39764340
    142      1   13.18031500   58.05366386   62.43465282
    143      1   12.04684153   54.23483236   63.73442338
    144      1   12.28338208   58.24659825   64.92077181
    145      1   11.14990860   54.42776675   66.22054237
    146      1   11.38644915   58.43953265   67.40689081
    147      1   10.48951623   58.63246705   69.89300980
    148      1   12.67857758   53.70061806   65.41613821
    149      1   10.39164045   66.59310673   50.87947129
    150      1    9.49470753   66.78604112   53.36559028
    151      1    8.59777460   66.97897552   55.85170927
    152      1    7.70084168   67.17190992   58.33782826
    153      1    6.80390875   67.36484432   60.82394725
    154      1    5.90697583   67.55777872   63.31006624
    155      1    5.01004290   67.75071312   65.79618523
    156      1    4.11310998   67.94364752   68.28230422
    157      1   11.02337650   66.05889243   52.56118611
    158      1    9.88990303   62.24006093   53.86095667
    159      1   10.12644358   66.25182683   55.04730510
    160      1    8.99297010   62.43299533   56.34707567
    161      1    9.22951065   66.44476122   57.53342410
    162      1    8.09603718   62.62592973   58.83319466
    163      1    8.33257773   66.63769562   60.01954309
    164      1    7.19910425   62.81886412   61.31931365
    165      1    7.43564480   66.83063002   62.50566208
    166      1    6.30217133   63.01179852   63.80543264
    167      1    6.53871188   67.02356442   64.99178107
    168      1    5.40523840   63.20473292   66.29155163
    169      1    5.64177895   67.21649882   67.47790006
    170      1    4.50830548   63.39766732   68.77767062
    171      1    4.74484603   67.40943322   69.96401905
    172      1   11.41857200   61.51291223   53.05655251
    173      1   10.52163908   61.70584663   55.54267150
    174      1    9.38816560   57.88701513   56.84244206
    175      1    9.62470615   61.89878103   58.02879049
    176      1    8.49123268   58.07994953   59.32856105
    177      1    8.72777323   62.09171543   60.51490948
    178      1    7.59429975   58.27288393   61.81468004
    179      1    7.83084030   62.28464983   63.00102847
    180      1    6.69736683   58.46581833   64.30079904
    181      1    6.93390738   62.47758423   65.48714747
    182      1    5.80043390   58.65875273   66.78691803
    183      1    6.03697445   62.67051862   67.97326646
    184      1    4.90350098   58.85168712   69.27303702
    185      1   10.01990165   57.35280083   58.52415689
    186      1    8.88642817   53.53396933   59.82392745
    187      1    9.12296872   57.54573523   61.01027588
    188      1    7.98949525   53.72690373   62.31004644
    189      1    8.22603580   57.73866963   63.49639487
    190      1    7.09256232   53.91983813   64.79616543
    191      1    7.32910287   57.93160403   65.98251386
    192      1    6.19562940   54.11277253   67.28228442
    193      1    6.43216995   58.12453843   68.46863285
    194      1    5.29869647   54.30570693   69.76840342
    195      1    9.51816422   52.99975504   61.50564228
    196      1    8.38469075   49.18092354   62.80541284
    197      1    8.62123130   53.19268944   63.99176127
    198      1    7.48775782   49.37385794   65.29153183
    199      1    7.72429837   53.38562383   66.47788026
    200      1    6.59082490   49.56679233   67.77765082
    201      1    6.82736545   53.57855823   68.96399925
    202      1    9.01642679   48.64670924   64.48712767
    203      1    8.11949387   48.83964364   66.97324666
    204      1    8.36470057   69.71107520   45.66920479
    205      1    7.23122710   65.89224370   46.96897535
    206      1    7.46776765   69.90400960   48.15532378
    207      1    6.33429417   66.08517810   49.45509434
    208      1    5.43736125   66.27811250   51.94121334
    209      1    4.54042832   66.47104690   54.42733233
    210      1    3.64349540   66.66398130   56.91345132
    211      1    2.74656247   66.85691570   59.39957031
    212      1    1.84962955   67.04985010   61.88568930
    213      1    0.95269662   67.24278449   64.37180829
    214      1    0.05576370   67.43571889   66.85792728
    215      1    8.75989607   65.16509501   46.16457119
    216      1    7.62642260   61.34626351   47.46434175
    217      1    7.86296315   65.35802941   48.65069018
    218      1    6.72948967   61.53919791   49.95046074
    219      1    6.96603022   65.55096381   51.13680917
    220      1    5.83255675   61.73213231   52.43657973
    221      1    6.06909730   65.74389820   53.62292816
    222      1    4.93562382   61.92506670   54.92269872
    223      1    5.17216437   65.93683260   56.10904715
    224      1    4.03869090   62.11800110   57.40881771
    225      1    4.27523145   66.12976700   58.59516614
    226      1    3.14175797   62.31093550   59.89493671
    227      1    3.37829852   66.32270140   61.08128514
    228      1    2.24482505   62.50386990   62.38105570
    229      1    2.48136560   66.51563580   63.56740413
    230      1    1.34789212   62.69680430   64.86717469
    231      1    1.58443267   66.70857020   66.05352312
    232      1    0.45095920   62.88973870   67.35329368
    233      1    0.68749975   66.90150459   68.53964211
    234      1    8.25815864   60.81204921   49.14605658
    235      1    7.12468517   56.99321771   50.44582714
    236      1    7.36122572   61.00498361   51.63217557
    237      1    6.22775225   57.18615211   52.93194613
    238      1    6.46429279   61.19791801   54.11829456
    239      1    5.33081932   57.37908651   55.41806512
    240      1    5.56735987   61.39085241   56.60441355
    241      1    4.43388639   57.57202091   57.90418411
    242      1    4.67042694   61.58378681   59.09053254
    243      1    3.53695347   57.76495531   60.39030310
    244      1    3.77349402   61.77672120   61.57665153
    245      1    2.64002054   57.95788970   62.87642209
    246      1    2.87656109   61.96965560   64.06277052
    247      1    1.74308762   58.15082410   65.36254109
    248      1    1.97962817   62.16259000   66.54888952
    249      1    0.84615469   58.34375850   67.84866008
    250      1    1.08269524   62.35552440   69.03500851
    251      1    7.75642122   56.45900341   52.12754197
    252      1    6.62294774   52.64017192   53.42731253
    253      1    6.85948829   56.65193781   54.61366096
    254      1    5.72601482   52.83310631   55.91343152
    255      1    5.96255537   56.84487221   57.09977995
    256      1    4.82908189   53.02604071   58.39955051
    257      1    5.06562244   57.03780661   59.58589894
    258      1    3.93214897   53.21897511   60.88566950
    259      1    4.16868952   57.23074101   62.07201793
    260      1    3.03521604   53.41190951   63.37178849
    261      1    3.27175659   57.42367541   64.55813692
    262      1    2.13828312   53.60484391   65.85790748
    263      1    2.37482367   57.61660981   67.04425591
    264      1    1.24135019   53.79777831   68.34402647
    265      1    1.47789074   57.80954420   69.53037490
    266      1    7.25468379   52.10595762   55.10902736
    267      1    6.35775087   52.29889202   57.59514635
    268      1    5.22427739   48.48006052   58.89491691
    269      1    5.46081794   52.49182641   60.08126534
    270      1    4.32734447   48.67299492   61.38103590
    271      1    4.56388502   52.68476081   62.56738433
    272      1    3.43041154   48.86592931   63.86715489
    273      1    3.66695209   52.87769521   65.05350332
    274      1    2.53347862   49.05886371   66.35327388
    275      1    2.77001917   53.07062961   67.53962231
    276      1    1.63654569   49.25179811   68.83939287
    277      1    6.75294636   47.75291182   58.09051274
    278      1    5.85601344   47.94584622   60.57663174
    279      1    4.72253996   44.12701472   61.87640230
    280      1    4.95908051   48.13878062   63.06275073
    281      1    3.82560704   44.31994912   64.36252129
    282      1    4.06214759   48.33171502   65.54886972
    283      1    2.92867411   44.51288352   66.84864028
    284      1    3.16521466   48.52464941   68.03498871
    285      1    2.03174119   44.70581792   69.33475927
    286      1    5.35427601   43.59280042   63.55811712
    287      1    4.45734309   43.78573482   66.04423612
    288      1    3.56041016   43.97866922   68.53035511
    289      1    3.67561825   69.73736088   42.56311302
    290      1    2.77868532   69.93029528   45.04923201
    291      1    4.07081374   65.19138068   43.05847942
    292      1    4.30735429   69.20314658   44.24482785
    293      1    3.17388082   65.38431508   45.54459841
    294      1    3.41042137   69.39608098   46.73094684
    295      1    2.27694789   65.57724948   48.03071740
    296      1    2.51348844   69.58901538   49.21706583
    297      1    1.38001497   65.77018388   50.51683639
    298      1    1.61655552   69.78194978   51.70318482
    299      1    0.48308204   65.96311828   53.00295538
    300      1    0.71962259   69.97488418   54.18930381
    301      1    4.70254979   64.65716639   44.74019425
    302      1    3.56907632   60.83833489   46.03996481
    303      1    3.80561687   64.85010078   47.22631324
    304      1    2.67214339   61.03126929   48.52608380
    305      1    2.90868394   65.04303518   49.71243223
    306      1    1.77521047   61.22420368   51.01220279
    307      1    2.01175102   65.23596958   52.19855122
    308      1    0.87827754   61.41713808   53.49832178
    309      1    1.11481809   65.42890398   54.68467021
    310      1    0.21788517   65.62183838   57.17078920
    311      1    5.09774529   60.11118619   45.23556065
    312      1    3.96427181   56.29235469   46.53533121
    313      1    4.20081236   60.30412059   47.72167964
    314      1    3.06733889   56.48528909   49.02145020
    315      1    3.30387944   60.49705499   50.20779863
    316      1    2.17040596   56.67822349   51.50756919
    317      1    2.40694651   60.68998939   52.69391762
    318      1    1.27347304   56.87115789   53.99368818
    319      1    1.51001359   60.88292378   55.18003661
    320      1    0.37654011   57.06409229   56.47980717
    321      1    0.61308066   61.07585818   57.66615560
    322      1    4.59600786   55.75814039   48.21704603
    323      1    3.46253439   51.93930889   49.51681660
    324      1    3.69907494   55.95107479   50.70316503
    325      1    2.56560146   52.13224329   52.00293559
    326      1    2.80214201   56.14400919   53.18928402
    327      1    1.66866854   52.32517769   54.48905458
    328      1    1.90520909   56.33694359   55.67540301
    329      1    0.77173561   52.51811209   56.97517357
    330      1    1.00827616   56.52987799   58.16152200
    331      1    0.11134324   56.72281239   60.64764099
    332      1    4.09427044   51.40509460   51.19853142
    333      1    2.96079696   47.58626310   52.49830198
    334      1    3.19733751   51.59802899   53.68465041
    335      1    2.06386404   47.77919750   54.98442098
    336      1    2.30040458   51.79096339   56.17076941
    337      1    1.16693111   47.97213189   57.47053997
    338      1    1.40347166   51.98389779   58.65688840
    339      1    0.26999819   48.16506629   59.95665896
    340      1    0.50653873   52.17683219   61.14300739
    341      1    3.59253301   47.05204880   54.18001681
    342      1    2.45905953   43.23321730   55.47978737
    343      1    2.69560008   47.24498320   56.66613580
    344      1    1.56212661   43.42615170   57.96590636
    345      1    1.79866716   47.43791760   59.15225479
    346      1    0.66519368   43.61908610   60.45202535
    347      1    0.90173423   47.63085200   61.63837378
    348      1    0.00480131   47.82378639   64.12449278
    349      1    3.09079558   42.69900300   57.16150220
    350      1    1.95732211   38.88017150   58.46127276
    351      1    2.19386266   42.89193740   59.64762119
    352      1    1.06038918   39.07310590   60.94739175
    353      1    1.29692973   43.08487180   62.13374018
    354      1    0.16345626   39.26604030   63.43351074
    355      1    0.39999681   43.27780620   64.61985917
    356      1    2.58905815   38.34595721   60.14298759
    357      1    1.69212523   38.53889160   62.62910658
    358      1    0.79519230   38.73182600   65.11522557
    359      1    0.01346746   64.68345206   41.63410248
    360      1    0.25000801   68.69521796   42.82045091
    361      1    0.64520351   64.14923776   43.31581731
    362      1    1.04039901   59.60325757   43.81118370
    363      1    0.14346608   59.79619197   46.29730270
    364      1    0.30212103   51.23844587   45.60632066
    365      1    0.53866158   55.25021177   46.79266909
    366      1    0.93385708   50.70423158   47.28803549
    367      1    0.03692415   50.89716597   49.77415448
    368      1    0.43211965   46.35118578   50.26952088
    369      1    1.86495079    6.72874538   36.24894166
    370      1    1.43121838    8.31759408   38.32498020
    371      1    0.99748598    9.90644278   40.40101873
    372      1    0.56375357   11.49529148   42.47705727
    373      1    0.13002117   13.08414018   44.55309580
    374      1    1.60444975    6.86616448   34.39802424
    375      1    1.17071735    8.45501318   36.47406277
    376      1    0.73698494   10.04386188   38.55010131
    377      1    0.30325254   11.63271058   40.62613984
    378      1    1.64366621    6.66924879   46.39617757
    379      1    1.20993381    8.25809749   48.47221610
    380      1    0.77620140    9.84694619   50.54825464
    381      1    0.34246900   11.43579489   52.62429317
    382      1    2.25062999    3.62897049   40.39318307
    383      1    1.81689758    5.21781919   42.46922161
    384      1    1.38316518    6.80666789   44.54526014
    385      1    0.94943277    8.39551659   46.62129868
    386      1    0.51570037    9.98436529   48.69733721
    387      1    0.08196796   11.57321399   50.77337575
    388      1   69.23324986    3.45429970   10.21753278
    389      1   69.86498590    2.92008541   11.89924761
    390      1   69.00017582    6.18639938    0.03502830
    391      1   67.86670235    2.36756789    1.33479886
    392      1   68.10324290    6.37933378    2.52114730
    393      1   66.96976943    2.56050228    3.82091786
    394      1   66.07283650    2.75343668    6.30703685
    395      1   65.17590357    2.94637108    8.79315584
    396      1   69.39537132    1.64041919    0.53039470
    397      1   68.49843840    1.83335359    3.01651369
    398      1   67.60150547    2.02628799    5.50263268
    399      1   66.70457255    2.21922238    7.98875167
    400      1   65.80763962    2.41215678   10.47487067
    401      1   62.91242314    2.05257366    2.39654091
    402      1   62.01549022    2.24550806    4.88265991
    403      1   64.44109212    1.32542496    1.59213675
    404      1   63.54415919    1.51835936    4.07825574
    405      1   62.64722627    1.71129376    6.56437473
    406      1   58.85507686    1.54464504    0.97216397
    407      1   60.38374584    0.81749634    0.16775981
    408      1   59.48681291    1.01043074    2.65387880
    409      1    0.08099246    3.44605149   22.48543614
    410      1    2.02433307    5.13729530   26.28420238
    411      1    1.54763331    2.85519753   27.54407820
    412      1    1.07093356    0.57309975   28.80395402
    413      1    1.14871326    4.65718008   27.87020976
    414      1    3.49097392    4.54644134   31.34284444
    415      1    0.67201350    2.37508230   29.13008558
    416      1    3.01427417    2.26434357   32.60272026
    417      1    0.19531375    0.09298453   30.38996140
    418      1    3.09205386    6.34842389   31.66897600
    419      1    5.43431452    6.23768516   35.14161067
    420      1    2.61535411    4.06632612   32.92885182
    421      1    4.95761477    3.95558738   36.40148650
    422      1    2.13865436    1.78422834   34.18872764
    423      1    4.48091502    1.67348961   37.66136232
    424      1    4.55869471    5.75756993   36.72761806
    425      1    4.08199496    3.47547216   37.98749388
    426      1    6.42425563    3.36473343   41.46012855
    427      1    3.60529521    1.19337438   39.24736970
    428      1    0.51565163    0.82942329   12.33626172
    429      1    0.11673158    2.63140584   12.66239328
    430      1    2.45899224    2.52066711   16.13502796
    431      1    1.98229249    0.23856933   17.39490378
    432      1    1.58337243    2.04055188   17.72103534
    433      1    3.92563309    1.92981315   21.19367001
    434      1    3.52671303    3.73179570   21.51980158
    435      1    5.86897370    3.62105696   24.99243625
    436      1    3.05001328    1.44969792   22.77967740
    437      1    5.39227395    1.33895919   26.25231207
    438      1    4.99335389    3.14094174   26.57844364
    439      1    7.33561455    3.03020301   30.05107831
    440      1    4.51665414    0.85884396   27.83831946
    441      1    6.85891480    0.74810523   31.31095413
    442      1    6.93669449    4.83218555   30.37720988
    443      1    9.27895516    4.72144682   33.84984455
    444      1    6.45999474    2.55008778   31.63708570
    445      1    8.80225540    2.43934905   35.10972037
    446      1    5.98329499    0.26799000   32.89696152
    447      1    8.32555565    0.15725127   36.36959619
    448      1    8.40333535    4.24133159   35.43585194
    449      1    7.92663559    1.95923382   36.69572776
    450      1    4.83699202    1.59528273    9.78461977
    451      1    3.96137221    1.11516750   11.37062716
    452      1    6.30363287    1.00442877   14.84326183
    453      1    5.42801306    0.52431354   16.42926922
    454      1    7.77027372    0.41357481   19.90190389
    455      1    7.37135367    2.21555736   20.22803546
    456      1    9.71361433    2.10481863   23.70067013
    457      1    8.83799452    1.62470340   25.28667752
    458      1   11.18025518    1.51396467   28.75931219
    459      1   10.78133512    3.31594721   29.08544376
    460      1   10.30463537    1.03384944   30.34531958
    461      1    8.68163265    0.07904439    8.49285365
    462      1   12.09161411    1.17943425   17.35026195
    463      1   11.21599430    0.69931902   18.93626933
    464      1   13.55825496    0.58858029   22.40890401
    465      1   12.68263515    0.10846506   23.99491139
    466      1   57.28815126    3.81987097   23.49898153
    467      1   59.56932684    2.60812266   24.09093084
    468      1   47.65688092    4.59287895   26.60703456
    469      1   49.93805650    3.38113063   27.19898387
    470      1   52.21923209    2.16938232   27.79093318
    471      1   54.50040767    0.95763401   28.38288249
    472      1   48.33633776    3.69798908   22.15675211
    473      1   50.61751334    2.48624077   22.74870142
    474      1   51.71895883    3.56538981   26.64483987
    475      1   52.89868892    1.27449246   23.34065073
    476      1   54.00013441    2.35364150   27.23678918
    477      1   55.17986450    0.06274415   23.93260004
    478      1   56.28130999    1.14189319   27.82873849
    479      1   52.39841567    2.67049995   22.19455743
    480      1   54.67959125    1.45875164   22.78650674
    481      1   56.96076683    0.24700333   23.37845605
    482      1   42.58796175    2.94239030   30.89898620
    483      1   44.86913733    1.73064199   31.49093551
    484      1   47.15031291    0.51889367   32.08288482
    485      1   31.86154068    8.10624200   23.48895721
    486      1   34.14271626    6.89449369   24.08090652
    487      1   36.42389184    5.68274537   24.67285583
    488      1   38.70506742    4.47099706   25.26480514
    489      1   40.98624301    3.25924875   25.85675445
    490      1   43.26741859    2.04750044   26.44870376
    491      1   44.36886408    3.12664948   30.34484221
    492      1   45.54859417    0.83575212   27.04065307
    493      1   46.65003966    1.91490117   30.93679152
    494      1   48.93121524    0.70315285   31.52874083
    495      1   33.64244301    8.29050118   22.93481322
    496      1   35.92361859    7.07875287   23.52676253
    497      1   38.20479417    5.86700456   24.11871184
    498      1   39.38452426    3.57610720   20.81452270
    499      1   40.48596975    4.65525624   24.71066115
    500      1   41.66569984    2.36435889   21.40647201
    501      1   42.76714533    3.44350793   25.30261046
    502      1   43.94687542    1.15261058   21.99842131
    503      1   45.04832091    2.23175962   25.89455976
    504      1   47.32949650    1.02001131   26.48650907
    505      1   43.44660217    2.54861807   20.85232801
    506      1   45.72777775    1.33686976   21.44427732
    507      1   48.00895333    0.12512145   22.03622663
    508      1   35.23786700    2.50364996   34.59898854
    509      1   37.51904258    1.29190165   35.19093785
    510      1   39.80021816    0.08015334   35.78288716
    511      1   24.51144593    7.66750166   27.18895955
    512      1   26.79262151    6.45575335   27.78090886
    513      1   29.07379709    5.24400504   28.37285817
    514      1   31.35497267    4.03225673   28.96480748
    515      1   33.63614825    2.82050841   29.55675679
    516      1   35.91732383    1.60876010   30.14870610
    517      1   38.19849942    0.39701179   30.74065541
    518      1   39.29994491    1.47616083   34.63679386
    519      1   41.58112049    0.26441252   35.22874317
    520      1   26.29234825    7.85176084   26.63481555
    521      1   27.47207834    5.56086349   23.33062641
    522      1   28.57352383    6.64001253   27.22676486
    523      1   29.75325392    4.34911518   23.92257572